title="Potential"
variables = "x","y","U(V)"
zone i=41,j=41
0 0 0
0.01 0 0
0.02 0 0
0.03 0 0
0.04 0 7.10543e-15
0.05 0 0
0.06 0 -0
0.07 0 -0
0.08 0 0
0.09 0 -0
0.1 0 -1.77636e-15
0.11 0 0
0.12 0 -0
0.13 0 -1.77636e-15
0.14 0 0
0.15 0 0
0.16 0 8.88178e-16
0.17 0 0
0.18 0 0
0.19 0 -8.88178e-16
0.2 0 0
0.21 0 0
0.22 0 -1.77636e-15
0.23 0 0
0.24 0 0
0.25 0 -2.66454e-15
0.26 0 8.88178e-16
0.27 0 -2.66454e-15
0.28 0 0
0.29 0 0
0.3 0 4.44089e-16
0.31 0 -0
0.32 0 -1.33227e-15
0.33 0 -8.88178e-16
0.34 0 -0
0.35 0 0
0.36 0 0
0.37 0 2.22045e-16
0.38 0 -0
0.39 0 -0
0.4 0 0
0 0.01 4.77335
0.01 0.01 4.77082
0.02 0.01 4.76321
0.03 0.01 4.75038
0.04 0.01 4.73216
0.05 0.01 4.70827
0.06 0.01 4.67838
0.07 0.01 4.64209
0.08 0.01 4.59897
0.09 0.01 4.54854
0.1 0.01 4.49032
0.11 0.01 4.42381
0.12 0.01 4.34858
0.13 0.01 4.26422
0.14 0.01 4.17046
0.15 0.01 4.06711
0.16 0.01 3.95416
0.17 0.01 3.83175
0.18 0.01 3.70022
0.19 0.01 3.56008
0.2 0.01 3.41202
0.21 0.01 3.25688
0.22 0.01 3.09559
0.23 0.01 2.92918
0.24 0.01 2.75868
0.25 0.01 2.58511
0.26 0.01 2.40942
0.27 0.01 2.23248
0.28 0.01 2.05506
0.29 0.01 1.87778
0.3 0.01 1.70114
0.31 0.01 1.52551
0.32 0.01 1.35114
0.33 0.01 1.17816
0.34 0.01 1.0066
0.35 0.01 0.836421
0.36 0.01 0.667489
0.37 0.01 0.499625
0.38 0.01 0.3326
0.39 0.01 0.166153
0.4 0.01 0
0 0.02 9.55175
0.01 0.02 9.54673
0.02 0.02 9.53162
0.03 0.02 9.50617
0.04 0.02 9.46999
0.05 0.02 9.42254
0.06 0.02 9.36315
0.07 0.02 9.29101
0.08 0.02 9.20525
0.09 0.02 9.10488
0.1 0.02 8.98891
0.11 0.02 8.85635
0.12 0.02 8.70627
0.13 0.02 8.53786
0.14 0.02 8.3505
0.15 0.02 8.14383
0.16 0.02 7.91778
0.17 0.02 7.67263
0.18 0.02 7.40905
0.19 0.02 7.12808
0.2 0.02 6.83113
0.21 0.02 6.5199
0.22 0.02 6.19631
0.23 0.02 5.86245
0.24 0.02 5.52043
0.25 0.02 5.17232
0.26 0.02 4.82008
0.27 0.02 4.46546
0.28 0.02 4.10998
0.29 0.02 3.75492
0.3 0.02 3.40128
0.31 0.02 3.04977
0.32 0.02 2.70089
0.33 0.02 2.35489
0.34 0.02 2.01183
0.35 0.02 1.67159
0.36 0.02 1.33391
0.37 0.02 0.99841
0.38 0.02 0.664622
0.39 0.02 0.332011
0.4 0.02 0
0 0.03 14.3402
0.01 0.03 14.3327
0.02 0.03 14.3104
0.03 0.03 14.2727
0.04 0.03 14.2191
0.05 0.03 14.1488
0.06 0.03 14.0607
0.07 0.03 13.9536
0.08 0.03 13.8261
0.09 0.03 13.6768
0.1 0.03 13.5041
0.11 0.03 13.3064
0.12 0.03 13.0823
0.13 0.03 12.8304
0.14 0.03 12.5499
0.15 0.03 12.2399
0.16 0.03 11.9005
0.17 0.03 11.5319
0.18 0.03 11.1353
0.19 0.03 10.7121
0.2 0.03 10.2645
0.21 0.03 9.79527
0.22 0.03 9.30731
0.23 0.03 8.80388
0.24 0.03 8.28827
0.25 0.03 7.76368
0.26 0.03 7.23312
0.27 0.03 6.69928
0.28 0.03 6.16449
0.29 0.03 5.63066
0.3 0.03 5.09926
0.31 0.03 4.5714
0.32 0.03 4.04776
0.33 0.03 3.52869
0.34 0.03 3.01424
0.35 0.03 2.5042
0.36 0.03 1.99815
0.37 0.03 1.49548
0.38 0.03 0.995466
0.39 0.03 0.49727
0.4 0.03 0
0 0.04 19.1434
0.01 0.04 19.1337
0.02 0.04 19.1044
0.03 0.04 19.0551
0.04 0.04 18.9849
0.05 0.04 18.8927
0.06 0.04 18.7771
0.07 0.04 18.6365
0.08 0.04 18.4689
0.09 0.04 18.2722
0.1 0.04 18.0443
0.11 0.04 17.7829
0.12 0.04 17.486
0.13 0.04 17.1518
0.14 0.04 16.7786
0.15 0.04 16.3655
0.16 0.04 15.9123
0.17 0.04 15.4194
0.18 0.04 14.888
0.19 0.04 14.3204
0.2 0.04 13.7196
0.21 0.04 13.0893
0.22 0.04 12.4338
0.23 0.04 11.7575
0.24 0.04 11.0651
0.25 0.04 10.361
0.26 0.04 9.64944
0.27 0.04 8.93407
0.28 0.04 8.21804
0.29 0.04 7.50394
0.3 0.04 6.79373
0.31 0.04 6.08881
0.32 0.04 5.39005
0.33 0.04 4.69786
0.34 0.04 4.01224
0.35 0.04 3.33283
0.36 0.04 2.65901
0.37 0.04 1.9899
0.38 0.04 1.32449
0.39 0.04 0.661603
0.4 0.04 0
0 0.05 23.9661
0.01 0.05 23.9543
0.02 0.05 23.9186
0.03 0.05 23.8584
0.04 0.05 23.7727
0.05 0.05 23.6601
0.06 0.05 23.5187
0.07 0.05 23.3464
0.08 0.05 23.1406
0.09 0.05 22.8988
0.1 0.05 22.6178
0.11 0.05 22.2949
0.12 0.05 21.9272
0.13 0.05 21.512
0.14 0.05 21.0472
0.15 0.05 20.5313
0.16 0.05 19.9639
0.17 0.05 19.3452
0.18 0.05 18.6769
0.19 0.05 17.9619
0.2 0.05 17.2042
0.21 0.05 16.4087
0.22 0.05 15.581
0.23 0.05 14.7272
0.24 0.05 13.8535
0.25 0.05 12.9658
0.26 0.05 12.0696
0.27 0.05 11.1695
0.28 0.05 10.2697
0.29 0.05 9.37334
0.3 0.05 8.4829
0.31 0.05 7.60005
0.32 0.05 6.72577
0.33 0.05 5.86047
0.34 0.05 5.00402
0.35 0.05 4.15587
0.36 0.05 3.31514
0.37 0.05 2.48064
0.38 0.05 1.65099
0.39 0.05 0.824653
0.4 0.05 0
0 0.06 28.8124
0.01 0.06 28.7986
0.02 0.06 28.7572
0.03 0.06 28.6872
0.04 0.06 28.5875
0.05 0.06 28.4562
0.06 0.06 28.2912
0.07 0.06 28.0897
0.08 0.06 27.8486
0.09 0.06 27.5644
0.1 0.06 27.2334
0.11 0.06 26.8518
0.12 0.06 26.4157
0.13 0.06 25.9218
0.14 0.06 25.3668
0.15 0.06 24.7488
0.16 0.06 24.0666
0.17 0.06 23.3206
0.18 0.06 22.5126
0.19 0.06 21.6462
0.2 0.06 20.7266
0.21 0.06 19.7602
0.22 0.06 18.7543
0.23 0.06 17.7169
0.24 0.06 16.656
0.25 0.06 15.5792
0.26 0.06 14.4935
0.27 0.06 13.4047
0.28 0.06 12.3178
0.29 0.06 11.2368
0.3 0.06 10.1645
0.31 0.06 9.10271
0.32 0.06 8.05252
0.33 0.06 7.01422
0.34 0.06 5.98749
0.35 0.06 4.97151
0.36 0.06 3.96504
0.37 0.06 2.96652
0.38 0.06 1.97417
0.39 0.06 0.986022
0.4 0.06 0
0 0.07 33.6862
0.01 0.07 33.6708
0.02 0.07 33.6243
0.03 0.07 33.5458
0.04 0.07 33.4338
0.05 0.07 33.2862
0.06 0.07 33.1002
0.07 0.07 32.8726
0.08 0.07 32.5996
0.09 0.07 32.2768
0.1 0.07 31.8996
0.11 0.07 31.4631
0.12 0.07 30.9623
0.13 0.07 30.3925
0.14 0.07 29.7496
0.15 0.07 29.0304
0.16 0.07 28.2332
0.17 0.07 27.3579
0.18 0.07 26.4067
0.19 0.07 25.3838
0.2 0.07 24.2958
0.21 0.07 23.151
0.22 0.07 21.959
0.23 0.07 20.7301
0.24 0.07 19.4744
0.25 0.07 18.2016
0.26 0.07 16.9204
0.27 0.07 15.6379
0.28 0.07 14.3602
0.29 0.07 13.0917
0.3 0.07 11.8355
0.31 0.07 10.5938
0.32 0.07 9.36738
0.33 0.07 8.15641
0.34 0.07 6.96022
0.35 0.07 5.77763
0.36 0.07 4.60698
0.37 0.07 3.44624
0.38 0.07 2.29315
0.39 0.07 1.14526
0.4 0.07 0
0 0.08 38.5907
0.01 0.08 38.574
0.02 0.08 38.5234
0.03 0.08 38.4379
0.04 0.08 38.3157
0.05 0.08 38.1544
0.06 0.08 37.9508
0.07 0.08 37.701
0.08 0.08 37.4003
0.09 0.08 37.0436
0.1 0.08 36.6252
0.11 0.08 36.1387
0.12 0.08 35.5778
0.13 0.08 34.9363
0.14 0.08 34.2086
0.15 0.08 33.3901
0.16 0.08 32.4778
0.17 0.08 31.4712
0.18 0.08 30.3724
0.19 0.08 29.1865
0.2 0.08 27.9219
0.21 0.08 26.5891
0.22 0.08 25.2008
0.23 0.08 23.77
0.24 0.08 22.3099
0.25 0.08 20.8325
0.26 0.08 19.3484
0.27 0.08 17.8664
0.28 0.08 16.3933
0.29 0.08 14.9341
0.3 0.08 13.4922
0.31 0.08 12.0695
0.32 0.08 10.6668
0.33 0.08 9.28379
0.34 0.08 7.91936
0.35 0.08 6.57183
0.36 0.08 5.23899
0.37 0.08 3.91831
0.38 0.08 2.60694
0.39 0.08 1.30188
0.4 0.08 0
0 0.09 43.5288
0.01 0.09 43.5111
0.02 0.09 43.4574
0.03 0.09 43.3666
0.04 0.09 43.2368
0.05 0.09 43.065
0.06 0.09 42.8476
0.07 0.09 42.5801
0.08 0.09 42.2571
0.09 0.09 41.8723
0.1 0.09 41.4187
0.11 0.09 40.8886
0.12 0.09 40.2739
0.13 0.09 39.5664
0.14 0.09 38.7585
0.15 0.09 37.8435
0.16 0.09 36.8168
0.17 0.09 35.6767
0.18 0.09 34.425
0.19 0.09 33.068
0.2 0.09 31.616
0.21 0.09 30.0829
0.22 0.09 28.4849
0.23 0.09 26.8393
0.24 0.09 25.1627
0.25 0.09 23.4701
0.26 0.09 21.7745
0.27 0.09 20.086
0.28 0.09 18.4125
0.29 0.09 16.7592
0.3 0.09 15.1296
0.31 0.09 13.5253
0.32 0.09 11.9466
0.33 0.09 10.3926
0.34 0.09 8.86161
0.35 0.09 7.35132
0.36 0.09 5.85887
0.37 0.09 4.38105
0.38 0.09 2.91441
0.39 0.09 1.45531
0.4 0.09 0
0 0.1 48.5024
0.01 0.1 48.484
0.02 0.1 48.4285
0.03 0.1 48.3345
0.04 0.1 48.1998
0.05 0.1 48.0212
0.06 0.1 47.7946
0.07 0.1 47.5148
0.08 0.1 47.1757
0.09 0.1 46.7698
0.1 0.1 46.2887
0.11 0.1 45.7231
0.12 0.1 45.0627
0.13 0.1 44.297
0.14 0.1 43.4154
0.15 0.1 42.4086
0.16 0.1 41.2692
0.17 0.1 39.9937
0.18 0.1 38.5831
0.19 0.1 37.0446
0.2 0.1 35.3913
0.21 0.1 33.6414
0.22 0.1 31.8167
0.23 0.1 29.9395
0.24 0.1 28.0313
0.25 0.1 26.1108
0.26 0.1 24.1934
0.27 0.1 22.2907
0.28 0.1 20.4114
0.29 0.1 18.5607
0.3 0.1 16.7417
0.31 0.1 14.9555
0.32 0.1 13.2016
0.33 0.1 11.4783
0.34 0.1 9.78318
0.35 0.1 8.11298
0.36 0.1 6.46411
0.37 0.1 4.83262
0.38 0.1 3.21434
0.39 0.1 1.60494
0.4 0.1 0
0 0.11 53.5127
0.01 0.11 53.4942
0.02 0.11 53.4381
0.03 0.11 53.343
0.04 0.11 53.2066
0.05 0.11 53.0253
0.06 0.11 52.7947
0.07 0.11 52.5089
0.08 0.11 52.161
0.09 0.11 51.7424
0.1 0.11 51.2433
0.11 0.11 50.6524
0.12 0.11 49.957
0.13 0.11 49.1434
0.14 0.11 48.1976
0.15 0.11 47.1061
0.16 0.11 45.8578
0.17 0.11 44.4457
0.18 0.11 42.8691
0.19 0.11 41.1359
0.2 0.11 39.263
0.21 0.11 37.2749
0.22 0.11 35.2009
0.23 0.11 33.0708
0.24 0.11 30.9123
0.25 0.11 28.7485
0.26 0.11 26.5974
0.27 0.11 24.4722
0.28 0.11 22.3815
0.29 0.11 20.3304
0.3 0.11 18.3211
0.31 0.11 16.3534
0.32 0.11 14.426
0.33 0.11 12.536
0.34 0.11 10.6798
0.35 0.11 8.8533
0.36 0.11 7.05197
0.37 0.11 5.27099
0.38 0.11 3.5054
0.39 0.11 1.75012
0.4 0.11 0
0 0.12 58.5601
0.01 0.12 58.5419
0.02 0.12 58.4866
0.03 0.12 58.393
0.04 0.12 58.2583
0.05 0.12 58.0789
0.06 0.12 57.85
0.07 0.12 57.5652
0.08 0.12 57.2169
0.09 0.12 56.7955
0.1 0.12 56.2898
0.11 0.12 55.6862
0.12 0.12 54.9694
0.13 0.12 54.122
0.14 0.12 53.1254
0.15 0.12 51.9606
0.16 0.12 50.6103
0.17 0.12 49.0621
0.18 0.12 47.3117
0.19 0.12 45.3671
0.2 0.12 43.2499
0.21 0.12 40.9944
0.22 0.12 38.6411
0.23 0.12 36.2306
0.24 0.12 33.7985
0.25 0.12 31.3733
0.26 0.12 28.9756
0.27 0.12 26.6192
0.28 0.12 24.3122
0.29 0.12 22.0584
0.3 0.12 19.8586
0.31 0.12 17.7112
0.32 0.12 15.613
0.33 0.12 13.5598
0.34 0.12 11.5467
0.35 0.12 9.56846
0.36 0.12 7.61947
0.37 0.12 5.69397
0.38 0.12 3.78615
0.39 0.12 1.89012
0.4 0.12 0
0 0.13 63.644
0.01 0.13 63.6265
0.02 0.13 63.5737
0.03 0.13 63.4839
0.04 0.13 63.3546
0.05 0.13 63.182
0.06 0.13 62.961
0.07 0.13 62.6851
0.08 0.13 62.3459
0.09 0.13 61.9331
0.1 0.13 61.434
0.11 0.13 60.8332
0.12 0.13 60.1124
0.13 0.13 59.2499
0.14 0.13 58.2214
0.15 0.13 57.0004
0.16 0.13 55.5608
0.17 0.13 53.8807
0.18 0.13 51.9487
0.19 0.13 49.7706
0.2 0.13 47.3752
0.21 0.13 44.8116
0.22 0.13 42.1385
0.23 0.13 39.4119
0.24 0.13 36.678
0.25 0.13 33.9707
0.26 0.13 31.3125
0.27 0.13 28.7167
0.28 0.13 26.1895
0.29 0.13 23.7325
0.3 0.13 21.3439
0.31 0.13 19.0198
0.32 0.13 16.7549
0.33 0.13 14.5434
0.34 0.13 12.3788
0.35 0.13 10.2544
0.36 0.13 8.16347
0.37 0.13 6.09928
0.38 0.13 4.0551
0.39 0.13 2.02423
0.4 0.13 0
0 0.14 68.7628
0.01 0.14 68.7466
0.02 0.14 68.6976
0.03 0.14 68.6144
0.04 0.14 68.4942
0.05 0.14 68.3335
0.06 0.14 68.127
0.07 0.14 67.8682
0.08 0.14 67.5485
0.09 0.14 67.1569
0.1 0.14 66.6799
0.11 0.14 66.1003
0.12 0.14 65.397
0.13 0.14 64.5439
0.14 0.14 63.5099
0.15 0.14 62.2589
0.16 0.14 60.7517
0.17 0.14 58.9513
0.18 0.14 56.8316
0.19 0.14 54.3916
0.2 0.14 51.6687
0.21 0.14 48.7384
0.22 0.14 45.6893
0.23 0.14 42.6005
0.24 0.14 39.5308
0.25 0.14 36.5189
0.26 0.14 33.5871
0.27 0.14 30.7455
0.28 0.14 27.9967
0.29 0.14 25.3382
0.3 0.14 22.7646
0.31 0.14 20.269
0.32 0.14 17.8436
0.33 0.14 15.4802
0.34 0.14 13.1707
0.35 0.14 10.9068
0.36 0.14 8.68073
0.37 0.14 6.48459
0.38 0.14 4.31074
0.39 0.14 2.15168
0.4 0.14 0
0 0.15 73.9139
0.01 0.15 73.8995
0.02 0.15 73.8559
0.03 0.15 73.7817
0.04 0.15 73.6744
0.05 0.15 73.5306
0.06 0.15 73.3454
0.07 0.15 73.1123
0.08 0.15 72.8228
0.09 0.15 72.4662
0.1 0.15 72.0283
0.11 0.15 71.4912
0.12 0.15 70.8313
0.13 0.15 70.0188
0.14 0.15 69.0154
0.15 0.15 67.7734
0.16 0.15 66.2359
0.17 0.15 64.3411
0.18 0.15 62.0347
0.19 0.15 59.2955
0.2 0.15 56.1696
0.21 0.15 52.7839
0.22 0.15 49.28
0.23 0.15 45.7698
0.24 0.15 42.3257
0.25 0.15 38.9872
0.26 0.15 35.7714
0.27 0.15 32.6816
0.28 0.15 29.7136
0.29 0.15 26.8589
0.3 0.15 24.1074
0.31 0.15 21.4481
0.32 0.15 18.8702
0.33 0.15 16.3631
0.34 0.15 13.9168
0.35 0.15 11.5215
0.36 0.15 9.16806
0.37 0.15 6.84759
0.38 0.15 4.55159
0.39 0.15 2.27177
0.4 0.15 0
0 0.16 79.0937
0.01 0.16 79.0816
0.02 0.16 79.0448
0.03 0.16 78.982
0.04 0.16 78.8912
0.05 0.16 78.7692
0.06 0.16 78.6117
0.07 0.16 78.4126
0.08 0.16 78.1644
0.09 0.16 77.8567
0.1 0.16 77.4761
0.11 0.16 77.0047
0.12 0.16 76.4183
0.13 0.16 75.6846
0.14 0.16 74.7595
0.15 0.16 73.5835
0.16 0.16 72.0775
0.17 0.16 70.1425
0.18 0.16 67.6707
0.19 0.16 64.586
0.2 0.16 60.9303
0.21 0.16 56.9477
0.22 0.16 52.877
0.23 0.16 48.8731
0.24 0.16 45.0151
0.25 0.16 41.3328
0.26 0.16 37.8296
0.27 0.16 34.496
0.28 0.16 31.3171
0.29 0.16 28.2765
0.3 0.16 25.3578
0.31 0.16 22.5458
0.32 0.16 19.826
0.33 0.16 17.1854
0.34 0.16 14.6119
0.35 0.16 12.0944
0.36 0.16 9.62239
0.37 0.16 7.18613
0.38 0.16 4.77626
0.39 0.16 2.38381
0.4 0.16 0
0 0.17 84.2979
0.01 0.17 84.2884
0.02 0.17 84.2596
0.03 0.17 84.2104
0.04 0.17 84.1393
0.05 0.17 84.0434
0.06 0.17 83.9194
0.07 0.17 83.7622
0.08 0.17 83.5654
0.09 0.17 83.3202
0.1 0.17 83.0148
0.11 0.17 82.6331
0.12 0.17 82.1527
0.13 0.17 81.5418
0.14 0.17 80.7546
0.15 0.17 79.7235
0.16 0.17 78.348
0.17 0.17 76.4806
0.18 0.17 73.9198
0.19 0.17 70.4473
0.2 0.17 66.018
0.21 0.17 61.1996
0.22 0.17 56.407
0.23 0.17 51.8307
0.24 0.17 47.5287
0.25 0.17 43.4993
0.26 0.17 39.7182
0.27 0.17 36.1556
0.28 0.17 32.7824
0.29 0.17 29.5721
0.3 0.17 26.5018
0.31 0.17 23.5511
0.32 0.17 20.7026
0.33 0.17 17.9405
0.34 0.17 15.2511
0.35 0.17 12.6217
0.36 0.17 10.041
0.37 0.17 7.49826
0.38 0.17 4.98352
0.39 0.17 2.48719
0.4 0.17 0
0 0.18 89.521
0.01 0.18 89.5145
0.02 0.18 89.4947
0.03 0.18 89.4609
0.04 0.18 89.4119
0.05 0.18 89.3459
0.06 0.18 89.2602
0.07 0.18 89.1514
0.08 0.18 89.0148
0.09 0.18 88.8438
0.1 0.18 88.6298
0.11 0.18 88.3602
0.12 0.18 88.0174
0.13 0.18 87.5753
0.14 0.18 86.9936
0.15 0.18 86.2079
0.16 0.18 85.1103
0.17 0.18 83.5122
0.18 0.18 81.0805
0.19 0.18 77.2656
0.2 0.18 71.4947
0.21 0.18 65.4258
0.22 0.18 59.7207
0.23 0.18 54.5138
0.24 0.18 49.7698
0.25 0.18 45.4174
0.26 0.18 41.3884
0.27 0.18 37.6259
0.28 0.18 34.0846
0.29 0.18 30.7279
0.3 0.18 27.526
0.31 0.18 24.4544
0.32 0.18 21.4926
0.33 0.18 18.623
0.34 0.18 15.8301
0.35 0.18 13.1004
0.36 0.18 10.4216
0.37 0.18 7.78242
0.38 0.18 5.17237
0.39 0.18 2.58144
0.4 0.18 0
0 0.19 94.7572
0.01 0.19 94.7539
0.02 0.19 94.7438
0.03 0.19 94.7266
0.04 0.19 94.7016
0.05 0.19 94.6679
0.06 0.19 94.6242
0.07 0.19 94.5685
0.08 0.19 94.4985
0.09 0.19 94.4106
0.1 0.19 94.3002
0.11 0.19 94.1605
0.12 0.19 93.9816
0.13 0.19 93.7484
0.14 0.19 93.4366
0.15 0.19 93.0044
0.16 0.19 92.373
0.17 0.19 91.3774
0.18 0.19 89.6244
0.19 0.19 86.0399
0.2 0.19 77.2694
0.21 0.19 69.2883
0.22 0.19 62.5362
0.23 0.19 56.734
0.24 0.19 51.6194
0.25 0.19 47.0122
0.26 0.19 42.7918
0.27 0.19 38.8751
0.28 0.19 35.2023
0.29 0.19 31.7288
0.3 0.19 28.4198
0.31 0.19 25.248
0.32 0.19 22.1906
0.33 0.19 19.2287
0.34 0.19 16.346
0.35 0.19 13.5282
0.36 0.19 10.7626
0.37 0.19 8.03747
0.38 0.19 5.34208
0.39 0.19 2.66621
0.4 0.19 0
0 0.2 100
0.01 0.2 100
0.02 0.2 100
0.03 0.2 100
0.04 0.2 100
0.05 0.2 100
0.06 0.2 100
0.07 0.2 100
0.08 0.2 100
0.09 0.2 100
0.1 0.2 100
0.11 0.2 100
0.12 0.2 100
0.13 0.2 100
0.14 0.2 100
0.15 0.2 100
0.16 0.2 100
0.17 0.2 100
0.18 0.2 100
0.19 0.2 100
0.2 0.2 82.2546
0.21 0.2 71.9218
0.22 0.2 64.4018
0.23 0.2 58.2666
0.24 0.2 52.9616
0.25 0.2 48.2201
0.26 0.2 43.8916
0.27 0.2 39.8804
0.28 0.2 36.1208
0.29 0.2 32.565
0.3 0.2 29.1766
0.31 0.2 25.9271
0.32 0.2 22.7931
0.33 0.2 19.7552
0.34 0.2 16.797
0.35 0.2 13.9038
0.36 0.2 11.063
0.37 0.2 8.26278
0.38 0.2 5.49229
0.39 0.2 2.74131
0.4 0.2 0
0 0.21 98.3892
0.01 0.21 98.3831
0.02 0.21 98.3646
0.03 0.21 98.3334
0.04 0.21 98.2888
0.05 0.21 98.23
0.06 0.21 98.1556
0.07 0.21 98.0638
0.08 0.21 97.9521
0.09 0.21 97.8172
0.1 0.21 97.6544
0.11 0.21 97.457
0.12 0.21 97.2153
0.13 0.21 96.9142
0.14 0.21 96.5295
0.15 0.21 96.0195
0.16 0.21 95.3056
0.17 0.21 94.2228
0.18 0.21 92.3783
0.19 0.21 88.6978
0.2 0.21 79.8273
0.21 0.21 71.7423
0.22 0.21 64.8826
0.23 0.21 58.9692
0.24 0.21 53.74
0.25 0.21 49.0152
0.26 0.21 44.6742
0.27 0.21 40.6341
0.28 0.21 36.8355
0.29 0.21 33.2338
0.3 0.21 29.7946
0.31 0.21 26.4906
0.32 0.21 23.2994
0.33 0.21 20.2021
0.34 0.21 17.1828
0.35 0.21 14.2272
0.36 0.21 11.3229
0.37 0.21 8.45835
0.38 0.21 5.62298
0.39 0.21 2.80675
0.4 0.21 0
0 0.22 96.7907
0.01 0.22 96.7786
0.02 0.22 96.742
0.03 0.22 96.6802
0.04 0.22 96.592
0.05 0.22 96.4756
0.06 0.22 96.3286
0.07 0.22 96.1474
0.08 0.22 95.9274
0.09 0.22 95.6623
0.1 0.22 95.3434
0.11 0.22 94.9585
0.12 0.22 94.49
0.13 0.22 93.9119
0.14 0.22 93.1842
0.15 0.22 92.2428
0.16 0.22 90.98
0.17 0.22 89.2075
0.18 0.22 86.5924
0.19 0.22 82.5856
0.2 0.22 76.6146
0.21 0.22 70.3377
0.22 0.22 64.417
0.23 0.22 58.9875
0.24 0.22 54.0143
0.25 0.22 49.4263
0.26 0.22 45.1558
0.27 0.22 41.1465
0.28 0.22 37.3533
0.29 0.22 33.74
0.3 0.22 30.2774
0.31 0.22 26.9414
0.32 0.22 23.7117
0.33 0.22 20.5711
0.34 0.22 17.5048
0.35 0.22 14.4994
0.36 0.22 11.543
0.37 0.22 8.62475
0.38 0.22 5.73453
0.39 0.22 2.86271
0.4 0.22 0
0 0.23 95.2165
0.01 0.23 95.1986
0.02 0.23 95.1445
0.03 0.23 95.0533
0.04 0.23 94.9233
0.05 0.23 94.7519
0.06 0.23 94.5357
0.07 0.23 94.2698
0.08 0.23 93.9479
0.09 0.23 93.5613
0.1 0.23 93.0985
0.11 0.23 92.5435
0.12 0.23 91.8742
0.13 0.23 91.0591
0.14 0.23 90.0527
0.15 0.23 88.7877
0.16 0.23 87.164
0.17 0.23 85.0346
0.18 0.23 82.1984
0.19 0.23 78.4377
0.2 0.23 73.7076
0.21 0.23 68.5768
0.22 0.23 63.4604
0.23 0.23 58.5496
0.24 0.23 53.9032
0.25 0.23 49.5199
0.26 0.23 45.3761
0.27 0.23 41.4427
0.28 0.23 37.6911
0.29 0.23 34.0956
0.3 0.23 30.6336
0.31 0.23 27.2858
0.32 0.23 24.0349
0.33 0.23 20.866
0.34 0.23 17.7658
0.35 0.23 14.7224
0.36 0.23 11.7249
0.37 0.23 8.76314
0.38 0.23 5.82769
0.39 0.23 2.90955
0.4 0.23 0
0 0.24 93.6781
0.01 0.24 93.6547
0.02 0.24 93.5842
0.03 0.24 93.4653
0.04 0.24 93.2959
0.05 0.24 93.0731
0.06 0.24 92.7924
0.07 0.24 92.4482
0.08 0.24 92.033
0.09 0.24 91.5365
0.1 0.24 90.9457
0.11 0.24 90.2428
0.12 0.24 89.4042
0.13 0.24 88.3977
0.14 0.24 87.1798
0.15 0.24 85.6913
0.16 0.24 83.8537
0.17 0.24 81.5687
0.18 0.24 78.7289
0.19 0.24 75.2589
0.2 0.24 71.2015
0.21 0.24 66.8014
0.22 0.24 62.298
0.23 0.24 57.8474
0.24 0.24 53.5291
0.25 0.24 49.3739
0.26 0.24 45.3862
0.27 0.24 41.5572
0.28 0.24 37.8728
0.29 0.24 34.3175
0.3 0.24 30.8758
0.31 0.24 27.5332
0.32 0.24 24.276
0.33 0.24 21.0921
0.34 0.24 17.9702
0.35 0.24 14.8997
0.36 0.24 11.8711
0.37 0.24 8.8752
0.38 0.24 5.90354
0.39 0.24 2.94781
0.4 0.24 0
0 0.25 92.1864
0.01 0.25 92.158
0.02 0.25 92.0722
0.03 0.25 91.9277
0.04 0.25 91.7221
0.05 0.25 91.452
0.06 0.25 91.1127
0.07 0.25 90.6978
0.08 0.25 90.1992
0.09 0.25 89.6061
0.1 0.25 88.905
0.11 0.25 88.0779
0.12 0.25 87.102
0.13 0.25 85.9478
0.14 0.25 84.5774
0.15 0.25 82.9439
0.16 0.25 80.9909
0.17 0.25 78.6573
0.18 0.25 75.8897
0.19 0.25 72.6677
0.2 0.25 69.0382
0.21 0.25 65.1291
0.22 0.25 61.083
0.23 0.25 57.0127
0.24 0.25 52.9918
0.25 0.25 49.0606
0.26 0.25 45.2375
0.27 0.25 41.5269
0.28 0.25 37.9255
0.29 0.25 34.4259
0.3 0.25 31.019
0.31 0.25 27.695
0.32 0.25 24.444
0.33 0.25 21.2564
0.34 0.25 18.123
0.35 0.25 15.0351
0.36 0.25 11.9844
0.37 0.25 8.96308
0.38 0.25 5.96345
0.39 0.25 2.97816
0.4 0.25 0
0 0.26 90.7517
0.01 0.26 90.7186
0.02 0.26 90.6189
0.03 0.26 90.4511
0.04 0.26 90.2128
0.05 0.26 89.9002
0.06 0.26 89.5085
0.07 0.26 89.0311
0.08 0.26 88.4598
0.09 0.26 87.7839
0.1 0.26 86.9902
0.11 0.26 86.0618
0.12 0.26 84.9782
0.13 0.26 83.7139
0.14 0.26 82.2383
0.15 0.26 80.5159
0.16 0.26 78.5086
0.17 0.26 76.18
0.18 0.26 73.5051
0.19 0.26 70.4837
0.2 0.26 67.1545
0.21 0.26 63.594
0.22 0.26 59.892
0.23 0.26 56.1288
0.24 0.26 52.3646
0.25 0.26 48.6393
0.26 0.26 44.9764
0.27 0.26 41.3875
0.28 0.26 37.8762
0.29 0.26 34.4416
0.3 0.26 31.0794
0.31 0.26 27.7839
0.32 0.26 24.5485
0.33 0.26 21.3663
0.34 0.26 18.2302
0.35 0.26 15.1332
0.36 0.26 12.0685
0.37 0.26 9.02926
0.38 0.26 6.00903
0.39 0.26 3.00138
0.4 0.26 0
0 0.27 89.3831
0.01 0.27 89.3459
0.02 0.27 89.2337
0.03 0.27 89.0451
0.04 0.27 88.7776
0.05 0.27 88.4275
0.06 0.27 87.9899
0.07 0.27 87.4584
0.08 0.27 86.825
0.09 0.27 86.0796
0.1 0.27 85.2099
0.11 0.27 84.201
0.12 0.27 83.0352
0.13 0.27 81.6913
0.14 0.27 80.1458
0.15 0.27 78.373
0.16 0.27 76.3477
0.17 0.27 74.0491
0.18 0.27 71.4667
0.19 0.27 68.6078
0.2 0.27 65.5021
0.21 0.27 62.2003
0.22 0.27 58.7624
0.23 0.27 55.2459
0.24 0.27 51.6985
0.25 0.27 48.1556
0.26 0.27 44.6413
0.27 0.27 41.1703
0.28 0.27 37.7505
0.29 0.27 34.3848
0.3 0.27 31.073
0.31 0.27 27.8127
0.32 0.27 24.5999
0.33 0.27 21.4302
0.34 0.27 18.2984
0.35 0.27 15.1992
0.36 0.27 12.127
0.37 0.27 9.07643
0.38 0.27 6.04202
0.39 0.27 3.01833
0.4 0.27 0
0 0.28 88.089
0.01 0.28 88.0481
0.02 0.28 87.925
0.03 0.28 87.7181
0.04 0.28 87.4251
0.05 0.28 87.0424
0.06 0.28 86.5652
0.07 0.28 85.9876
0.08 0.28 85.3021
0.09 0.28 84.4995
0.1 0.28 83.5688
0.11 0.28 82.4973
0.12 0.28 81.27
0.13 0.28 79.8704
0.14 0.28 78.2806
0.15 0.28 76.4826
0.16 0.28 74.4601
0.17 0.28 72.2019
0.18 0.28 69.7049
0.19 0.28 66.9785
0.2 0.28 64.0459
0.21 0.28 60.9427
0.22 0.28 57.7113
0.23 0.28 54.3939
0.24 0.28 51.0278
0.25 0.28 47.6434
0.26 0.28 44.2629
0.27 0.28 40.9019
0.28 0.28 37.5705
0.29 0.28 34.2741
0.3 0.28 31.0152
0.31 0.28 27.7938
0.32 0.28 24.6083
0.33 0.28 21.4562
0.34 0.28 18.3341
0.35 0.28 15.238
0.36 0.28 12.1639
0.37 0.28 9.10747
0.38 0.28 6.06428
0.39 0.28 3.02993
0.4 0.28 0
0 0.29 86.8767
0.01 0.29 86.8326
0.02 0.29 86.6999
0.03 0.29 86.4772
0.04 0.29 86.1623
0.05 0.29 85.7517
0.06 0.29 85.241
0.07 0.29 84.6248
0.08 0.29 83.8963
0.09 0.29 83.0474
0.1 0.29 82.0686
0.11 0.29 80.9492
0.12 0.29 79.6773
0.13 0.29 78.2398
0.14 0.29 76.6237
0.15 0.29 74.8165
0.16 0.29 72.8083
0.17 0.29 70.5934
0.18 0.29 68.1726
0.19 0.29 65.5553
0.2 0.29 62.7601
0.21 0.29 59.8134
0.22 0.29 56.7462
0.23 0.29 53.5904
0.24 0.29 50.3757
0.25 0.29 47.1271
0.26 0.29 43.8649
0.27 0.29 40.6041
0.28 0.29 37.3555
0.29 0.29 34.126
0.3 0.29 30.9199
0.31 0.29 27.7389
0.32 0.29 24.5834
0.33 0.29 21.4522
0.34 0.29 18.3436
0.35 0.29 15.2549
0.36 0.29 12.1832
0.37 0.29 9.12524
0.38 0.29 6.07771
0.39 0.29 3.03712
0.4 0.29 0
0 0.3 85.7525
0.01 0.3 85.7057
0.02 0.3 85.5648
0.03 0.3 85.3287
0.04 0.3 84.9951
0.05 0.3 84.561
0.06 0.3 84.0224
0.07 0.3 83.3743
0.08 0.3 82.6109
0.09 0.3 81.7251
0.1 0.3 80.709
0.11 0.3 79.5538
0.12 0.3 78.25
0.13 0.3 76.7878
0.14 0.3 75.1577
0.15 0.3 73.3515
0.16 0.3 71.3633
0.17 0.3 69.1908
0.18 0.3 66.8368
0.19 0.3 64.3102
0.2 0.3 61.626
0.21 0.3 58.8046
0.22 0.3 55.8697
0.23 0.3 52.846
0.24 0.3 49.7573
0.25 0.3 46.6245
0.26 0.3 43.4654
0.27 0.3 40.2941
0.28 0.3 37.1213
0.29 0.3 33.9546
0.3 0.3 30.7994
0.31 0.3 27.6587
0.32 0.3 24.5341
0.33 0.3 21.4258
0.34 0.3 18.3331
0.35 0.3 15.2547
0.36 0.3 12.1887
0.37 0.3 9.13262
0.38 0.3 6.08419
0.39 0.3 3.04083
0.4 0.3 0
0 0.31 84.7219
0.01 0.31 84.6728
0.02 0.31 84.525
0.03 0.31 84.2776
0.04 0.31 83.9284
0.05 0.31 83.4747
0.06 0.31 82.9131
0.07 0.31 82.2392
0.08 0.31 81.4479
0.09 0.31 80.5332
0.1 0.31 79.4886
0.11 0.31 78.307
0.12 0.31 76.9811
0.13 0.31 75.5036
0.14 0.31 73.8679
0.15 0.31 72.0686
0.16 0.31 70.1025
0.17 0.31 67.9696
0.18 0.31 65.6736
0.19 0.31 63.2225
0.2 0.31 60.629
0.21 0.31 57.9092
0.22 0.31 55.0819
0.23 0.31 52.1667
0.24 0.31 49.1829
0.25 0.31 46.1483
0.26 0.31 43.0782
0.27 0.31 39.9856
0.28 0.31 36.8809
0.29 0.31 33.7718
0.3 0.31 30.6643
0.31 0.31 27.5624
0.32 0.31 24.4684
0.33 0.31 21.3837
0.34 0.31 18.3085
0.35 0.31 15.2423
0.36 0.31 12.1841
0.37 0.31 9.13239
0.38 0.31 6.0856
0.39 0.31 3.04202
0.4 0.31 0
0 0.32 83.7895
0.01 0.32 83.7385
0.02 0.32 83.585
0.03 0.32 83.3282
0.04 0.32 82.9661
0.05 0.32 82.4965
0.06 0.32 81.9162
0.07 0.32 81.2216
0.08 0.32 80.4082
0.09 0.32 79.4711
0.1 0.32 78.4051
0.11 0.32 77.2045
0.12 0.32 75.8638
0.13 0.32 74.3777
0.14 0.32 72.7416
0.15 0.32 70.9524
0.16 0.32 69.0086
0.17 0.32 66.9115
0.18 0.32 64.6653
0.19 0.32 62.2774
0.2 0.32 59.7583
0.21 0.32 57.1215
0.22 0.32 54.382
0.23 0.32 51.556
0.24 0.32 48.6595
0.25 0.32 45.7075
0.26 0.32 42.7135
0.27 0.32 39.6893
0.28 0.32 36.6447
0.29 0.32 33.5875
0.3 0.32 30.5238
0.31 0.32 27.458
0.32 0.32 24.3935
0.33 0.32 21.3321
0.34 0.32 18.2748
0.35 0.32 15.2219
0.36 0.32 12.173
0.37 0.32 9.12728
0.38 0.32 6.08381
0.39 0.32 3.04163
0.4 0.32 0
0 0.33 82.9592
0.01 0.33 82.9066
0.02 0.33 82.7485
0.03 0.33 82.4839
0.04 0.33 82.1114
0.05 0.33 81.6289
0.06 0.33 81.0337
0.07 0.33 80.3227
0.08 0.33 79.4921
0.09 0.33 78.538
0.1 0.33 77.4562
0.11 0.33 76.2422
0.12 0.33 74.892
0.13 0.33 73.4017
0.14 0.33 71.7685
0.15 0.33 69.9906
0.16 0.33 68.068
0.17 0.33 66.0026
0.18 0.33 63.7988
0.19 0.33 61.4634
0.2 0.33 59.0054
0.21 0.33 56.4363
0.22 0.33 53.7686
0.23 0.33 51.0158
0.24 0.33 48.1915
0.25 0.33 45.3086
0.26 0.33 42.379
0.27 0.33 39.4135
0.28 0.33 36.4211
0.29 0.33 33.4096
0.3 0.33 30.3852
0.31 0.33 27.3526
0.32 0.33 24.3154
0.33 0.33 21.2763
0.34 0.33 18.2367
0.35 0.33 15.1975
0.36 0.33 12.1587
0.37 0.33 9.11993
0.38 0.33 6.08073
0.39 0.33 3.0407
0.4 0.33 0
0 0.34 82.2341
0.01 0.34 82.1802
0.02 0.34 82.0183
0.03 0.34 81.7476
0.04 0.34 81.3668
0.05 0.34 80.874
0.06 0.34 80.2671
0.07 0.34 79.5432
0.08 0.34 78.6995
0.09 0.34 77.7327
0.1 0.34 76.6393
0.11 0.34 75.4162
0.12 0.34 74.0602
0.13 0.34 72.5687
0.14 0.34 70.9401
0.15 0.34 69.1737
0.16 0.34 67.2702
0.17 0.34 65.2322
0.18 0.34 63.064
0.19 0.34 60.7718
0.2 0.34 58.3638
0.21 0.34 55.8497
0.22 0.34 53.2403
0.23 0.34 50.5472
0.24 0.34 47.7821
0.25 0.34 44.9563
0.26 0.34 42.0805
0.27 0.34 39.1645
0.28 0.34 36.2168
0.29 0.34 33.2448
0.3 0.34 30.2547
0.31 0.34 27.2516
0.32 0.34 24.2394
0.33 0.34 21.2209
0.34 0.34 18.1983
0.35 0.34 15.1726
0.36 0.34 12.1443
0.37 0.34 9.11306
0.38 0.34 6.07847
0.39 0.34 3.04044
0.4 0.34 0
0 0.35 81.6168
0.01 0.35 81.5619
0.02 0.35 81.397
0.03 0.35 81.1215
0.04 0.35 80.7341
0.05 0.35 80.2333
0.06 0.35 79.6173
0.07 0.35 78.8837
0.08 0.35 78.0301
0.09 0.35 77.0539
0.1 0.35 75.9523
0.11 0.35 74.723
0.12 0.35 73.3637
0.13 0.35 71.8729
0.14 0.35 70.2495
0.15 0.35 68.4937
0.16 0.35 66.607
0.17 0.35 64.592
0.18 0.35 62.453
0.19 0.35 60.196
0.2 0.35 57.8282
0.21 0.35 55.3583
0.22 0.35 52.7957
0.23 0.35 50.1506
0.24 0.35 47.4333
0.25 0.35 44.654
0.26 0.35 41.8222
0.27 0.35 38.9471
0.28 0.35 36.0366
0.29 0.35 33.098
0.3 0.35 30.1373
0.31 0.35 27.1598
0.32 0.35 24.1695
0.33 0.35 21.1698
0.34 0.35 18.163
0.35 0.35 15.1505
0.36 0.35 12.1328
0.37 0.35 9.10954
0.38 0.35 6.07966
0.39 0.35 3.04257
0.4 0.35 0
0 0.36 81.1092
0.01 0.36 81.0535
0.02 0.36 80.8864
0.03 0.36 80.6071
0.04 0.36 80.2147
0.05 0.36 79.7079
0.06 0.36 79.085
0.07 0.36 78.3442
0.08 0.36 77.4833
0.09 0.36 76.5003
0.1 0.36 75.3931
0.11 0.36 74.1598
0.12 0.36 72.7989
0.13 0.36 71.3095
0.14 0.36 69.6912
0.15 0.36 67.9448
0.16 0.36 66.072
0.17 0.36 64.0757
0.18 0.36 61.9602
0.19 0.36 59.731
0.2 0.36 57.3949
0.21 0.36 54.9596
0.22 0.36 52.4337
0.23 0.36 49.8263
0.24 0.36 47.1467
0.25 0.36 44.4041
0.26 0.36 41.6074
0.27 0.36 38.7651
0.28 0.36 35.8847
0.29 0.36 32.9733
0.3 0.36 30.0368
0.31 0.36 27.0806
0.32 0.36 24.1091
0.33 0.36 21.1257
0.34 0.36 18.1333
0.35 0.36 15.1335
0.36 0.36 12.1269
0.37 0.36 9.11262
0.38 0.36 6.08806
0.39 0.36 3.0502
0.4 0.36 0
0 0.37 80.7129
0.01 0.37 80.6567
0.02 0.37 80.4879
0.03 0.37 80.2059
0.04 0.37 79.8098
0.05 0.37 79.2986
0.06 0.37 78.6708
0.07 0.37 77.9247
0.08 0.37 77.0587
0.09 0.37 76.071
0.1 0.37 74.96
0.11 0.37 73.7242
0.12 0.37 72.3627
0.13 0.37 70.875
0.14 0.37 69.2611
0.15 0.37 67.5223
0.16 0.37 65.6604
0.17 0.37 63.6786
0.18 0.37 61.581
0.19 0.37 59.3729
0.2 0.37 57.0607
0.21 0.37 54.6514
0.22 0.37 52.1531
0.23 0.37 49.5741
0.24 0.37 46.9229
0.25 0.37 44.2082
0.26 0.37 41.4383
0.27 0.37 38.621
0.28 0.37 35.7639
0.29 0.37 32.8735
0.3 0.37 29.9561
0.31 0.37 27.0169
0.32 0.37 24.0604
0.33 0.37 21.0908
0.34 0.37 18.111
0.35 0.37 15.1233
0.36 0.37 12.1287
0.37 0.37 9.12596
0.38 0.37 6.10977
0.39 0.37 3.07017
0.4 0.37 0
0 0.38 80.4291
0.01 0.38 80.3725
0.02 0.38 80.2025
0.03 0.38 79.9186
0.04 0.38 79.5201
0.05 0.38 79.0059
0.06 0.38 78.3747
0.07 0.38 77.6251
0.08 0.38 76.7557
0.09 0.38 75.765
0.1 0.38 74.6516
0.11 0.38 73.4144
0.12 0.38 72.0527
0.13 0.38 70.5665
0.14 0.38 68.9561
0.15 0.38 67.2228
0.16 0.38 65.3688
0.17 0.38 63.3973
0.18 0.38 61.3123
0.19 0.38 59.119
0.2 0.38 56.8234
0.21 0.38 54.4324
0.22 0.38 51.9533
0.23 0.38 49.3941
0.24 0.38 46.7628
0.25 0.38 44.0676
0.26 0.38 41.3164
0.27 0.38 38.5169
0.28 0.38 35.6762
0.29 0.38 32.8009
0.3 0.38 29.8971
0.31 0.38 26.9702
0.32 0.38 24.0251
0.33 0.38 21.0659
0.34 0.38 18.0965
0.35 0.38 15.12
0.36 0.38 12.1388
0.37 0.38 9.15271
0.38 0.38 6.15491
0.39 0.38 3.12069
0.4 0.38 0
0 0.39 80.2585
0.01 0.39 80.2017
0.02 0.39 80.031
0.03 0.39 79.746
0.04 0.39 79.3461
0.05 0.39 78.8301
0.06 0.39 78.197
0.07 0.39 77.4455
0.08 0.39 76.5741
0.09 0.39 75.5816
0.1 0.39 74.4669
0.11 0.39 73.229
0.12 0.39 71.8674
0.13 0.39 70.3821
0.14 0.39 68.7739
0.15 0.39 67.044
0.16 0.39 65.1948
0.17 0.39 63.2294
0.18 0.39 61.1519
0.19 0.39 58.9674
0.2 0.39 56.6817
0.21 0.39 54.3014
0.22 0.39 51.8337
0.23 0.39 49.2861
0.24 0.39 46.6666
0.25 0.39 43.9829
0.26 0.39 41.2429
0.27 0.39 38.4539
0.28 0.39 35.623
0.29 0.39 32.7568
0.3 0.39 29.8613
0.31 0.39 26.9419
0.32 0.39 24.0037
0.33 0.39 21.0513
0.34 0.39 18.0891
0.35 0.39 15.1215
0.36 0.39 12.1536
0.37 0.39 9.19118
0.38 0.39 6.23646
0.39 0.39 3.25768
0.4 0.39 0
0 0.4 80.2016
0.01 0.4 80.1447
0.02 0.4 79.9738
0.03 0.4 79.6885
0.04 0.4 79.288
0.05 0.4 78.7715
0.06 0.4 78.1378
0.07 0.4 77.3856
0.08 0.4 76.5136
0.09 0.4 75.5206
0.1 0.4 74.4054
0.11 0.4 73.1673
0.12 0.4 71.8057
0.13 0.4 70.3208
0.14 0.4 68.7133
0.15 0.4 66.9846
0.16 0.4 65.1369
0.17 0.4 63.1736
0.18 0.4 61.0986
0.19 0.4 58.917
0.2 0.4 56.6345
0.21 0.4 54.2578
0.22 0.4 51.7938
0.23 0.4 49.2501
0.24 0.4 46.6345
0.25 0.4 43.9547
0.26 0.4 41.2183
0.27 0.4 38.4328
0.28 0.4 35.6052
0.29 0.4 32.742
0.3 0.4 29.8493
0.31 0.4 26.9324
0.32 0.4 23.9966
0.33 0.4 21.0466
0.34 0.4 18.087
0.35 0.4 15.1233
0.36 0.4 12.1631
0.37 0.4 9.22189
0.38 0.4 6.34209
0.39 0.4 3.67356
0.4 0.4 1.83678
